&FCI NORB=  16,NELEC=10,MS2=0,
 &END
 0.8227153295684669    1    1    1    1
 0.05187587577524144    2    1    2    1
 0.5219201962559413    2    2    1    1
 0.535263084520174    2    2    2    2
 -0.1347836972470542    3    1    1    1
 -0.008657841512417053    3    1    2    2
 0.05793493716089329    3    1    3    1
 0.08632998383785331    3    2    2    1
 0.2097929322213681    3    2    3    2
 0.5579235002150018    3    3    1    1
 0.5400470008931167    3    3    2    2
 -0.03025371939317356    3    3    3    1
 0.5605460154373538    3    3    3    3
 0.09174878837664172    4    1    4    1
 0.04723726824560959    4    2    4    2
 0.01793854091372141    4    3    4    1
 0.02777111434804593    4    3    4    3
 0.6167116434966806    4    4    1    1
 0.4950011142931046    4    4    2    2
 -0.05120347206217244    4    4    3    1
 0.4994721784892377    4    4    3    3
 0.5574513568785978    4    4    4    4
 0.09174878837664172    5    1    5    1
 0.04723726824560959    5    2    5    2
 0.01793854091372141    5    3    5    1
 0.02777111434804593    5    3    5    3
 0.02173144186568365    5    4    5    4
 0.6167116434966806    5    5    1    1
 0.4950011142931046    5    5    2    2
 -0.05120347206217243    5    5    3    1
 0.4994721784892377    5    5    3    3
 0.5139884731472305    5    5    4    4
 0.5574513568785978    5    5    5    5
 -0.03561566048469387    6    1    5    2
 0.03274533140789082    6    1    6    1
 -0.06326282529165393    6    2    5    1
 -0.03802750942520941    6    2    5    3
 0.07187262411478063    6    2    6    2
 -0.03634033716578009    6    3    5    2
 0.02129640076005778    6    3    6    1
 0.03508481685867926    6    3    6    3
 0.01461681127204733    6    4    6    4
 -0.08239995604786524    6    5    2    1
 -0.1408740357900443    6    5    3    2
 0.1491913500304486    6    5    6    5
 0.5357098613594921    6    6    1    1
 0.4797794886355124    6    6    2    2
 -0.02657196082195435    6    6    3    1
 0.4797443654275239    6    6    3    3
 0.4715924627481501    6    6    4    4
 0.5081607966085441    6    6    5    5
 0.4820906746005189    6    6    6    6
 -0.0356156604846939    7    1    4    2
 0.03274533140789088    7    1    7    1
 -0.06326282529165396    7    2    4    1
 -0.03802750942520942    7    2    4    3
 0.07187262411478068    7    2    7    2
 -0.0363403371657801    7    3    4    2
 0.02129640076005779    7    3    7    1
 0.03508481685867928    7    3    7    3
 -0.08239995604786529    7    4    2    1
 -0.1408740357900444    7    4    3    2
 0.1199577274863541    7    4    6    5
 0.1491913500304488    7    4    7    4
 0.01461681127204733    7    5    6    4
 0.01461681127204734    7    5    7    5
 0.01828416693019705    7    6    5    4
 0.01825888562015071    7    6    7    6
 0.5357098613594925    7    7    1    1
 0.4797794886355127    7    7    2    2
 -0.02657196082195444    7    7    3    1
 0.4797443654275243    7    7    3    3
 0.5081607966085445    7    7    4    4
 0.4715924627481504    7    7    5    5
 0.4455729033602178    7    7    6    6
 0.4820906746005196    7    7    7    7
 -0.03524297684128183    8    1    2    1
 -0.04074732313525206    8    1    3    2
 0.05461805447735864    8    1    6    5
 0.0546180544773587    8    1    7    4
 0.03139253594027781    8    1    8    1
 -0.09902456594727965    8    2    1    1
 -0.04661452206194711    8    2    2    2
 0.01745134735859632    8    2    3    1
 -0.0434285157352537    8    2    3    3
 -0.07441150662198262    8    2    4    4
 -0.07441150662198263    8    2    5    5
 -0.05756619827574588    8    2    6    6
 -0.05756619827574614    8    2    7    7
 0.03454616823267013    8    2    8    2
 0.01020038606708412    8    3    2    1
 0.03390671413208901    8    3    3    2
 -0.01685771610674289    8    3    6    5
 -0.01685771610674282    8    3    7    4
 -0.001758941272080179    8    3    8    1
 -1.454253424481812e-15    8    3    8    2
 0.02574499145622101    8    3    8    3
 -0.02077063701641325    8    4    4    2
 0.02061769217890737    8    4    7    1
 0.009719515085149335    8    4    7    3
 0.01542975405064832    8    4    8    4
 -0.02077063701641325    8    5    5    2
 0.02061769217890735    8    5    6    1
 0.009719515085149337    8    5    6    3
 0.01542975405064834    8    5    8    5
 0.03382971287644416    8    6    5    1
 0.006981782449266088    8    6    5    3
 -0.02290667301698743    8    6    6    2
 0.01920341543530237    8    6    8    6
 0.0338297128764442    8    7    4    1
 0.006981782449266106    8    7    4    3
 -0.02290667301698751    8    7    7    2
 0.0192034154353025    8    7    8    7
 0.3849906228031625    8    8    1    1
 1.532139515234422e-15    8    8    2    1
 0.3739434384087874    8    8    2    2
 -0.01189244298406278    8    8    3    1
 -1.70487262919109e-15    8    8    3    2
 0.3806281806388789    8    8    3    3
 0.3592472833223549    8    8    4    4
 0.3592472833223548    8    8    5    5
 0.3518218572933207    8    8    6    6
 0.3518218572933239    8    8    7    7
 -9.213014454321943e-15    8    8    8    1
 -0.002559575988447579    8    8    8    2
 2.582877514276093e-15    8    8    8    3
 0.3533280612079513    8    8    8    8
 -0.08437056478993962    9    1    1    1
 -0.02483152558294141    9    1    2    2
 0.03508237116075699    9    1    3    1
 -0.04238233132830437    9    1    3    3
 -0.03130903659562344    9    1    4    4
 -0.03130903659562344    9    1    5    5
 -0.0247567692246128    9    1    6    6
 -0.0247567692246129    9    1    7    7
 0.006664526188246471    9    1    8    2
 -0.0187004290474871    9    1    8    8
 0.03411063970385471    9    1    9    1
 -0.000324543222555269    9    2    2    1
 -0.009544290122943031    9    2    3    2
 0.0005846207771048886    9    2    6    5
 0.0005846207771048843    9    2    7    4
 -0.004225446575758229    9    2    8    1
 -0.0160233903830305    9    2    8    3
 -1.296223756241197e-15    9    2    8    8
 0.01252498165364666    9    2    9    2
 0.1150822839777867    9    3    1    1
 0.04437457961389323    9    3    2    2
 -0.03205451729612252    9    3    3    1
 0.05345664062548897    9    3    3    3
 0.07018063195288905    9    3    4    4
 0.07018063195288905    9    3    5    5
 0.05161063877667307    9    3    6    6
 0.05161063877667314    9    3    7    7
 -0.03084929147706867    9    3    8    2
 0.003453484898978239    9    3    8    8
 -0.01908776834443358    9    3    9    1
 0.0376521330958023    9    3    9    3
 0.02105492525439208    9    4    4    1
 0.009612956934137195    9    4    4    3
 -0.0170208385670036    9    4    7    2
 0.0101644211871623    9    4    8    7
 0.01781400513488478    9    4    9    4
 0.02105492525439208    9    5    5    1
 0.009612956934137199    9    5    5    3
 -0.0170208385670036    9    5    6    2
 0.01016442118716232    9    5    8    6
 0.01781400513488478    9    5    9    5
 -0.002498627753198275    9    6    5    2
 0.00165309872168953    9    6    6    1
 0.0008160296419366277    9    6    6    3
 0.004146388883456698    9    6    8    5
 0.006081954311234169    9    6    9    6
 -0.002498627753198287    9    7    4    2
 0.001653098721689535    9    7    7    1
 0.0008160296419366425    9    7    7    3
 0.004146388883456699    9    7    8    4
 0.006081954311234147    9    7    9    7
 -0.02886065392650743    9    8    2    1
 -0.08059579771897678    9    8    3    2
 0.05013528703473159    9    8    6    5
 0.05013528703473144    9    8    7    4
 0.00512605536727401    9    8    8    1
 -0.03791888034075609    9    8    8    3
 1.79921551363938e-15    9    8    8    8
 0.0223703801094375    9    8    9    2
 0.07999279914080047    9    8    9    8
 0.4512983231568335    9    9    1    1
 0.3840689338373527    9    9    2    2
 -0.03229840501917277    9    9    3    1
 0.3951272309006291    9    9    3    3
 0.4007276788093279    9    9    4    4
 0.4007276788093278    9    9    5    5
 0.3756829401859137    9    9    6    6
 0.3756829401859138    9    9    7    7
 -0.02463475509719546    9    9    8    2
 0.3350906948054849    9    9    8    8
 -0.01899282782297876    9    9    9    1
 0.0301941885483401    9    9    9    3
 0.357505673937019    9    9    9    9
 0.03002688675915308   10    1    4    1
 0.0005995709470891994   10    1    4    3
 -0.0172438543749579   10    1    7    2
 0.01291169677940597   10    1    8    7
 -0.003259507299477913   10    1    9    4
 0.02102579188104308   10    1   10    1
 0.01645536769518047   10    2    4    2
 -0.01311940331444267   10    2    7    1
 -0.009565545339108458   10    2    7    3
 -0.01007660992560598   10    2    8    4
 -0.001949322189805196   10    2    9    7
 0.0150687251098785   10    2   10    2
 -0.00782040018913332   10    3    4    1
 0.005781477858077181   10    3    4    3
 -0.001699410038954856   10    3    7    2
 0.001405760196545938   10    3    8    7
 -0.001632221494911969   10    3    9    4
 0.001484050816561781   10    3   10    1
 0.011469849615765   10    3   10    3
 0.1449696637125928   10    4    1    1
 0.09695275968073921   10    4    2    2
 -0.02683904819641667   10    4    3    1
 0.1040182545591939   10    4    3    3
 0.1054748177652819   10    4    4    4
 0.09906461632725239   10    4    5    5
 0.08547188003399001   10    4    6    6
 0.09092939778596297   10    4    7    7
 -0.02924953767671292   10    4    8    2
 0.04394828485485928   10    4    8    8
 -0.02947686995983997   10    4    9    1
 0.03114857713688626   10    4    9    3
 0.04298462169731809   10    4    9    9
 0.07359191071476424   10    4   10    4
 0.003205100719014754   10    5    5    4
 0.002728758875986386   10    5    7    6
 0.008191070656016116   10    5   10    5
 0.003740916537628832   10    6    6    4
 0.003740916537628842   10    6    7    5
 0.006733892595476496   10    6   10    6
 -0.03175412552065111   10    7    2    1
 -0.04419991710849876   10    7    3    2
 0.04413705154502855   10    7    6    5
 0.05161888462028632   10    7    7    4
 0.02799596056973121   10    7    8    1
 0.003753276611977636   10    7    8    3
 1.440315974143754e-15   10    7    8    8
 -0.007265518703405046   10    7    9    2
 -0.006288168906483342   10    7    9    8
 0.0512691171069093   10    7   10    7
 -0.01432355064897697   10    8    4    2
 0.01266500684362559   10    8    7    1
 0.009476848815356763   10    8    7    3
 0.00610087739275617   10    8    8    4
 -0.003319323720434755   10    8    9    7
 -0.006527882109888947   10    8   10    2
 0.008819030357028728   10    8   10    8
 -0.0277610868460422   10    9    4    1
 -0.002712441545701519   10    9    4    3
 0.01407969203382054   10    9    7    2
 -0.01213075044001345   10    9    8    7
 -0.0153864513142966   10    9    9    4
 -0.001978189261451786   10    9   10    1
 0.007699118725409356   10    9   10    3
 0.02254152233110553   10    9   10    9
 0.4998988132267892   10   10    1    1
 0.4218026079703191   10   10    2    2
 -0.03382189309417083   10   10    3    1
 0.4255207026306143   10   10    3    3
 0.4651404872687848   10   10    4    4
 0.4344993981198162   10   10    5    5
 0.4056300253382854   10   10    6    6
 0.4333081365746642   10   10    7    7
 -0.0536352304400848   10   10    8    2
 0.3204238854796895   10   10    8    8
 -0.02152976366663165   10   10    9    1
 0.05340750800241357   10   10    9    3
 0.3587531393113008   10   10    9    9
 0.06855019518349734   10   10   10    4
 0.4196213574578366   10   10   10   10
 0.03002688675915308   11    1    5    1
 0.0005995709470891968   11    1    5    3
 -0.01724385437495788   11    1    6    2
 0.01291169677940596   11    1    8    6
 -0.003259507299477917   11    1    9    5
 0.02102579188104309   11    1   11    1
 0.01645536769518047   11    2    5    2
 -0.01311940331444265   11    2    6    1
 -0.009565545339108448   11    2    6    3
 -0.01007660992560598   11    2    8    5
 -0.001949322189805188   11    2    9    6
 0.0150687251098785   11    2   11    2
 -0.007820400189133322   11    3    5    1
 0.00578147785807718   11    3    5    3
 -0.001699410038954843   11    3    6    2
 0.001405760196545969   11    3    8    6
 -0.001632221494911968   11    3    9    5
 0.00148405081656178   11    3   11    1
 0.011469849615765   11    3   11    3
 0.003205100719014754   11    4    5    4
 0.002728758875986387   11    4    7    6
 0.008191070656016116   11    4   10    5
 0.008191070656016116   11    4   11    4
 0.1449696637125928   11    5    1    1
 0.09695275968073919   11    5    2    2
 -0.02683904819641666   11    5    3    1
 0.1040182545591939   11    5    3    3
 0.09906461632725239   11    5    4    4
 0.1054748177652819   11    5    5    5
 0.09092939778596278   11    5    6    6
 0.08547188003399016   11    5    7    7
 -0.02924953767671275   11    5    8    2
 0.04394828485485827   11    5    8    8
 -0.02947686995983996   11    5    9    1
 0.03114857713688622   11    5    9    3
 0.04298462169731804   11    5    9    9
 0.05720976940273201   11    5   10    4
 0.07030411420044645   11    5   10   10
 0.07359191071476423   11    5   11    5
 -0.03175412552065102   11    6    2    1
 -0.04419991710849857   11    6    3    2
 0.05161888462028608   11    6    6    5
 0.04413705154502847   11    6    7    4
 0.02799596056973113   11    6    8    1
 0.003753276611977717   11    6    8    3
 -0.007265518703405005   11    6    9    2
 -0.006288168906483526   11    6    9    8
 0.03780133191595628   11    6   10    7
 0.05126911710690923   11    6   11    6
 0.003740916537628846   11    7    6    4
 0.003740916537628855   11    7    7    5
 0.006733892595476501   11    7   10    6
 0.006733892595476504   11    7   11    7
 -0.01432355064897697   11    8    5    2
 0.01266500684362557   11    8    6    1
 0.00947684881535678   11    8    6    3
 0.00610087739275618   11    8    8    5
 -0.003319323720434811   11    8    9    6
 -0.006527882109888937   11    8   11    2
 0.008819030357028617   11    8   11    8
 -0.0277610868460422   11    9    5    1
 -0.002712441545701516   11    9    5    3
 0.01407969203382054   11    9    6    2
 -0.01213075044001344   11    9    8    6
 -0.01538645131429661   11    9    9    5
 -0.001978189261451785   11    9   11    1
 0.007699118725409364   11    9   11    3
 0.02254152233110554   11    9   11    9
 0.01532054457448425   11   10    5    4
 0.0138390556181893   11   10    7    6
 -0.000876959508474574   11   10   10    5
 -0.000876959508474574   11   10   11    4
 0.01686640172407809   11   10   11   10
 0.4998988132267891   11   11    1    1
 0.421802607970319   11   11    2    2
 -0.03382189309417081   11   11    3    1
 0.4255207026306143   11   11    3    3
 0.4344993981198162   11   11    4    4
 0.4651404872687848   11   11    5    5
 0.4333081365746639   11   11    6    6
 0.4056300253382856   11   11    7    7
 -0.05363523044008468   11   11    8    2
 0.3204238854796894   11   11    8    8
 -0.0215297636666316   11   11    9    1
 0.05340750800241346   11   11    9    3
 0.3587531393113008   11   11    9    9
 0.07030411420044641   11   11   10    4
 0.3858885540096804   11   11   10   10
 0.06855019518349731   11   11   11    5
 0.4196213574578366   11   11   11   11
 -0.07252386655652338   12    1    1    1
 -0.04817345291726773   12    1    2    2
 0.015099798508844   12    1    3    1
 -0.05318236739596851   12    1    3    3
 -0.04716894759288759   12    1    4    4
 -0.0471689475928876   12    1    5    5
 -0.04179543267217408   12    1    6    6
 -0.04179543267217419   12    1    7    7
 0.01408923904948181   12    1    8    2
 -0.0204044608969251   12    1    8    8
 0.01867381427566084   12    1    9    1
 -0.01628485414144834   12    1    9    3
 -0.0186581299537927   12    1    9    9
 -0.03353576020360035   12    1   10    4
 -0.0322807452863257   12    1   10   10
 -0.03353576020360034   12    1   11    5
 -0.03228074528632571   12    1   11   11
 0.01910336208871495   12    1   12    1
 -0.03939125656177737   12    2    2    1
 -0.08351109442138421   12    2    3    2
 0.06035578438358322   12    2    6    5
 0.06035578438358328   12    2    7    4
 0.02657881534326089   12    2    8    1
 0.002880040031260157   12    2    8    3
 -0.00971459606606043   12    2    9    2
 0.00271726226155141   12    2    9    8
 0.04416334315709407   12    2   10    7
 0.044163343157094   12    2   11    6
 0.06224984401876937   12    2   12    2
 -0.06608964947588568   12    3    1    1
 -0.09713728354111256   12    3    2    2
 -0.004241995776670988   12    3    3    1
 -0.09978990080079095   12    3    3    3
 -0.06799506263101959   12    3    4    4
 -0.06799506263101959   12    3    5    5
 -0.06553981908388333   12    3    6    6
 -0.0655398190838834   12    3    7    7
 0.01975324686647371   12    3    8    2
 -0.02354589783669184   12    3    8    8
 0.00716344036070267   12    3    9    1
 -0.02118156067447154   12    3    9    3
 -0.02596187478894659   12    3    9    9
 -0.04103114102031719   12    3   10    4
 -0.04957853931904679   12    3   10   10
 -0.04103114102031719   12    3   11    5
 -0.04957853931904679   12    3   11   11
 0.02112603363828457   12    3   12    1
 0.05563156668223655   12    3   12    3
 0.001360532093856368   12    4    4    1
 -0.001865410561475097   12    4    4    3
 0.002949064082123812   12    4    7    2
 -0.004129123910208721   12    4    8    7
 0.009713428192873592   12    4    9    4
 -0.01271668494554261   12    4   10    1
 -0.01216822350056109   12    4   10    3
 -0.0115411996596363   12    4   10    9
 0.02137424328036308   12    4   12    4
 0.001360532093856368   12    5    5    1
 -0.001865410561475096   12    5    5    3
 0.00294906408212379   12    5    6    2
 -0.004129123910208734   12    5    8    6
 0.009713428192873593   12    5    9    5
 -0.01271668494554261   12    5   11    1
 -0.01216822350056108   12    5   11    3
 -0.01154119965963631   12    5   11    9
 0.02137424328036308   12    5   12    5
 0.009766317487263866   12    6    5    2
 -0.007501073572382757   12    6    6    1
 -0.004241359248528507   12    6    6    3
 -0.007452898112146149   12    6    8    5
 -0.002139376722845498   12    6    9    6
 0.01557363897454371   12    6   11    2
 -0.004249302739867289   12    6   11    8
 0.01827608533775912   12    6   12    6
 0.009766317487263913   12    7    4    2
 -0.007501073572382807   12    7    7    1
 -0.004241359248528555   12    7    7    3
 -0.007452898112146157   12    7    8    4
 -0.002139376722845514   12    7    9    7
 0.01557363897454372   12    7   10    2
 -0.004249302739867345   12    7   10    8
 0.01827608533775913   12    7   12    7
 0.03044988156632234   12    8    2    1
 0.06756198653910885   12    8    3    2
 -0.04986483869970083   12    8    6    5
 -0.04986483869970072   12    8    7    4
 -0.01406191610573038   12    8    8    1
 -1.080333248396813e-15   12    8    8    2
 0.02493472505019834   12    8    8    3
 1.440349271024081e-14   12    8    8    8
 -0.01376888426618416   12    8    9    2
 -0.04949655272668021   12    8    9    8
 -0.01275713323238072   12    8   10    7
 -0.01275713323238045   12    8   11    6
 -0.01746029070894922   12    8   12    2
 0.03962473388070775   12    8   12    8
 0.05508998484749093   12    9    1    1
 -0.002955593588340783   12    9    2    2
 -0.01608302160181269   12    9    3    1
 -0.005151171020618813   12    9    3    3
 0.03550952711503414   12    9    4    4
 0.03550952711503415   12    9    5    5
 0.01723353856311708   12    9    6    6
 0.0172335385631171   12    9    7    7
 -0.0211329424596859   12    9    8    2
 -0.01714150619978659   12    9    8    8
 0.005098713337477478   12    9    9    1
 0.01954367251789673   12    9    9    3
 0.01628532881206809   12    9    9    9
 -0.004504819323704517   12    9   10    4
 0.02979711331954439   12    9   10   10
 -0.004504819323704525   12    9   11    5
 0.02979711331954446   12    9   11   11
 0.003827210683347468   12    9   12    1
 0.007038755390908001   12    9   12    3
 0.03507224564177311   12    9   12    9
 -0.05320300990442641   12   10    4    1
 -0.02764334152860565   12   10    4    3
 0.05402128462326911   12   10    7    2
 -0.01775062632354522   12   10    8    7
 -0.0216425866503939   12   10    9    4
 -0.00771891755914737   12   10   10    1
 0.005296650399220154   12   10   10    3
 0.02292175083659569   12   10   10    9
 -0.009386397610115274   12   10   12    4
 0.05546692121091104   12   10   12   10
 -0.0532030099044264   12   11    5    1
 -0.02764334152860565   12   11    5    3
 0.0540212846232691   12   11    6    2
 -0.01775062632354523   12   11    8    6
 -0.0216425866503939   12   11    9    5
 -0.007718917559147367   12   11   11    1
 0.005296650399220158   12   11   11    3
 0.02292175083659568   12   11   11    9
 -0.009386397610115277   12   11   12    5
 0.05546692121091105   12   11   12   11
 0.4612715133426393   12   12    1    1
 0.4460021322160238   12   12    2    2
 -0.01342930830522628   12   12    3    1
 0.4501859991440598   12   12    3    3
 0.4355791013471   12   12    4    4
 0.4355791013471   12   12    5    5
 0.4173012039011873   12   12    6    6
 0.4173012039011875   12   12    7    7
 -0.03884382664863605   12   12    8    2
 0.3367575220269805   12   12    8    8
 -0.01460096907704438   12   12    9    1
 0.03913468761098396   12   12    9    3
 1.241679171819887e-15   12   12    9    8
 0.3587517868916215   12   12    9    9
 0.06367642279364272   12   12   10    4
 0.3876931236919529   12   12   10   10
 0.0636764227936427   12   12   11    5
 0.3876931236919529   12   12   11   11
 -0.02991153585599569   12   12   12    1
 -0.0635400339204665   12   12   12    3
 0.01000980712782574   12   12   12    9
 0.3982928899844128   12   12   12   12
 -0.020319337564739   13    1    5    2
 0.02224504243948042   13    1    6    1
 0.007303279157504984   13    1    6    3
 0.01539731922688624   13    1    8    5
 0.00010585505933846   13    1    9    6
 -0.01351852248110953   13    1   11    2
 0.009979615328135778   13    1   11    8
 -0.01171551176798921   13    1   12    6
 0.02065132184080299   13    1   13    1
 -0.02292391261233528   13    2    5    1
 -0.007888724132528075   13    2    5    3
 0.0191622120320625   13    2    6    2
 -0.01497087246967277   13    2    8    6
 -0.002945694958561035   13    2    9    5
 -0.01568330259791023   13    2   11    1
 -0.009819411494828043   13    2   11    3
 0.001802834271914497   13    2   11    9
 0.01590191499321475   13    2   12    5
 0.009131032405078742   13    2   12   11
 0.02109041605834197   13    2   13    2
 -0.006049362796284102   13    3    5    2
 0.001483055387208707   13    3    6    1
 0.005091728364954059   13    3    6    3
 0.003704000817336953   13    3    8    5
 0.00450154807940028   13    3    9    6
 -0.01024827571669118   13    3   11    2
 3.400098133011532e-05   13    3   11    8
 -0.01244771019446972   13    3   12    6
 0.003357186308430416   13    3   13    1
 0.01189977128418155   13    3   13    3
 0.006360636661278265   13    4    6    4
 0.006360636661278275   13    4    7    5
 0.006926787460608169   13    4   10    6
 0.006926787460608174   13    4   11    7
 0.007815895711498062   13    4   13    4
 -0.04432168342255804   13    5    2    1
 -0.0609879701803436   13    5    3    2
 0.07489211275466962   13    5    6    5
 0.06217083943211314   13    5    7    4
 0.03768176780051597   13    5    8    1
 0.001246387383123882   13    5    8    3
 -0.007503220822896541   13    5    9    2
 0.001250807188627407   13    5    9    8
 0.04343454830114046   13    5   10    7
 0.05728812322235669   13    5   11    6
 0.05034100916186603   13    5   12    2
 -0.01958891806602949   13    5   12    8
 0.06797631516837395   13    5   13    5
 0.1708917255615217   13    6    1    1
 0.1109290241461297   13    6    2    2
 -0.02873191044619955   13    6    3    1
 0.1154136514336689   13    6    3    3
 0.1209064905311454   13    6    4    4
 0.1327928196100237   13    6    5    5
 0.1090301273474307   13    6    6    6
 0.1012348012918779   13    6    7    7
 -0.03993334901219062   13    6    8    2
 0.04482238724961198   13    6    8    8
 -0.02514924897402358   13    6    9    1
 0.04007441040968897   13    6    9    3
 0.05593702487726505   13    6    9    9
 0.06151976894521784   13    6   10    4
 0.08777311961906925   13    6   10   10
 0.07683726687686593   13    6   11    5
 0.09089144702137343   13    6   11   11
 -0.03410693308859207   13    6   12    1
 -0.0468710214756633   13    6   12    3
 0.007964859467688087   13    6   12    9
 0.07853343406964182   13    6   12   12
 0.08954469366957284   13    6   13    6
 0.005943164539439119   13    7    5    4
 0.003897663027776591   13    7    7    6
 0.007658748965823991   13    7   10    5
 0.007658748965823991   13    7   11    4
 0.001559163701152005   13    7   11   10
 0.009102174321067639   13    7   13    7
 0.03049879613328867   13    8    5    1
 0.01218653580737627   13    8    5    3
 -0.02950523141910915   13    8    6    2
 0.007100546452261653   13    8    8    6
 0.002481900508305642   13    8    9    5
 0.01198949053395889   13    8   11    1
 -0.002169492299201969   13    8   11    3
 -0.002893654703571947   13    8   11    9
 -0.00230859043329256   13    8   12    5
 -0.02282671306080726   13    8   12   11
 -0.007458180140383461   13    8   13    2
 0.01969697547480767   13    8   13    8
 -0.005211747531120573   13    9    5    2
 0.0003180027094939873   13    9    6    1
 0.008753467642890861   13    9    6    3
 -0.002911675924558019   13    9    8    5
 -0.003030202151339226   13    9    9    6
 0.0006830247340703307   13    9   11    2
 0.003620423075862616   13    9   11    8
 0.002311795390860396   13    9   12    6
 -0.002837239927799319   13    9   13    1
 -0.0006134313282216038   13    9   13    3
 0.007775585655510064   13    9   13    9
 0.01036288286294282   13   10    6    4
 0.01036288286294283   13   10    7    5
 0.002240529654206095   13   10   10    6
 0.002240529654206108   13   10   11    7
 0.00431082603472827   13   10   13    4
 0.01024211616271652   13   10   13   10
 -0.06703052743447452   13   11    2    1
 -0.1157687838098387   13   11    3    2
 0.1219925595027842   13   11    6    5
 0.1012667937768985   13   11    7    4
 0.04522690010249331   13   11    8    1
 -0.01782050275107696   13   11    8    3
 -1.44332556010002e-15   13   11    8    8
 0.002616667269095521   13   11    9    2
 0.04501326399199456   13   11    9    8
 0.03822716442227384   13   11   10    7
 0.04270822373068593   13   11   11    6
 0.04979598355697969   13   11   12    2
 -0.0464142526959522   13   11   12    8
 0.06251041156989467   13   11   13    5
 0.113256030597099   13   11   13   11
 0.0332333884752652   13   12    5    2
 -0.02406050459101049   13   12    6    1
 -0.02784244761275203   13   12    6    3
 -0.01193474670606555   13   12    8    5
 0.0007874510779574634   13   12    9    6
 0.008456377155188387   13   12   11    2
 -0.01213426280234414   13   12   11    8
 0.001771749533639082   13   12   12    6
 -0.01182872452064643   13   12   13    1
 -0.0006877470781163472   13   12   13    3
 -0.00706138745189237   13   12   13    9
 0.03095947911215346   13   12   13   12
 0.5050262226298633   13   13    1    1
 0.4389181655673818   13   13    2    2
 -0.03281907698126586   13   13    3    1
 0.4438172532847061   13   13    3    3
 0.439717348069014   13   13    4    4
 0.4678487895461089   13   13    5    5
 0.444061375818176   13   13    6    6
 0.4154111112115643   13   13    7    7
 -0.05046002042170361   13   13    8    2
 0.3352105865180082   13   13    8    8
 -0.03060992899015901   13   13    9    1
 0.04979106181529502   13   13    9    3
 0.3564016583483769   13   13    9    9
 0.0823476578938087   13   13   10    4
 0.3867621774153833   13   13   10   10
 0.08746627524833039   13   13   11    5
 0.4142004572909493   13   13   11   11
 -0.04074553881022964   13   13   12    1
 -0.05711544314260815   13   13   12    3
 2.073081039098704e-15   13   13   12    8
 0.01211268605646502   13   13   12    9
 0.3920491471497343   13   13   12   12
 0.1005252754960653   13   13   13    6
 0.4275603326390163   13   13   13   13
 -0.02031933756473895   14    1    4    2
 0.0222450424394804   14    1    7    1
 0.007303279157504955   14    1    7    3
 0.01539731922688616   14    1    8    4
 0.0001058550593384699   14    1    9    7
 -0.0135185224811095   14    1   10    2
 0.009979615328135724   14    1   10    8
 -0.01171551176798922   14    1   12    7
 0.02065132184080292   14    1   14    1
 -0.02292391261233519   14    2    4    1
 -0.007888724132528025   14    2    4    3
 0.01916221203206242   14    2    7    2
 -0.01497087246967264   14    2    8    7
 -0.002945694958561022   14    2    9    4
 -0.0156833025979102   14    2   10    1
 -0.009819411494828045   14    2   10    3
 0.001802834271914478   14    2   10    9
 0.01590191499321474   14    2   12    4
 0.009131032405078647   14    2   12   10
 0.02109041605834191   14    2   14    2
 -0.006049362796284054   14    3    4    2
 0.001483055387208682   14    3    7    1
 0.00509172836495402   14    3    7    3
 0.003704000817336941   14    3    8    4
 0.004501548079400289   14    3    9    7
 -0.01024827571669118   14    3   10    2
 3.400098133009913e-05   14    3   10    8
 -0.01244771019446973   14    3   12    7
 0.00335718630843041   14    3   14    1
 0.01189977128418155   14    3   14    3
 -0.0443216834225579   14    4    2    1
 -0.06098797018034342   14    4    3    2
 0.0621708394321129   14    4    6    5
 0.07489211275466949   14    4    7    4
 0.03768176780051582   14    4    8    1
 0.001246387383123694   14    4    8    3
 -0.007503220822896632   14    4    9    2
 0.001250807188627908   14    4    9    8
 0.0572881232223567   14    4   10    7
 0.0434345483011403   14    4   11    6